REMARK SMILES O=c1cc(-c2ccc(O)cc2)oc2cc(O[C@@H]3O[C@H](CO)[C@@H](O)[C@H](O)[C@H]3O)cc(O)c12
REMARK SMILES IDX 16 1 15 2 4 3 3 4 12 5 2 6 13 7 1 8 31 9 14 10 29 11 28 12
REMARK SMILES IDX 5 13 6 14 7 15 8 16 11 17 10 18 9 19 30 21 17 23 26 24 18 25
REMARK SMILES IDX 24 26 19 27 22 28 27 29 25 31 20 33 21 34 23 36
REMARK H PARENT 9 20 30 22 27 30 25 32 21 35 23 37
ROOT
ATOM      1  O   UNL     1      -1.619   0.881   0.511  1.00  0.00    -0.462 OA
ENDROOT
BRANCH   1   2
ATOM      2  C   UNL     1      -0.632  -0.061   0.432  1.00  0.00     0.130 A 
ATOM      3  C   UNL     1       4.099  -0.623  -0.132  1.00  0.00     0.138 A 
ATOM      4  C   UNL     1       4.060  -1.962  -0.060  1.00  0.00     0.100 A 
ATOM      5  O   UNL     1       2.986   0.197  -0.017  1.00  0.00    -0.456 OA
ATOM      6  C   UNL     1       2.764  -2.627   0.135  1.00  0.00     0.197 A 
ATOM      7  C   UNL     1       1.757  -0.390   0.156  1.00  0.00     0.146 A 
ATOM      8  O   UNL     1       2.669  -3.847   0.207  1.00  0.00    -0.289 OA
ATOM      9  C   UNL     1       1.581  -1.766   0.239  1.00  0.00     0.107 A 
ATOM     10  C   UNL     1       0.654   0.461   0.252  1.00  0.00     0.094 A 
ATOM     11  C   UNL     1       0.300  -2.292   0.416  1.00  0.00     0.134 A 
ATOM     12  C   UNL     1      -0.805  -1.445   0.510  1.00  0.00     0.093 A 
BRANCH   3  13
ATOM     13  C   UNL     1       5.369   0.106  -0.317  1.00  0.00     0.018 A 
ATOM     14  C   UNL     1       5.627   1.266   0.432  1.00  0.00     0.016 A 
ATOM     15  C   UNL     1       6.820   1.977   0.266  1.00  0.00     0.047 A 
ATOM     16  C   UNL     1       7.758   1.530  -0.657  1.00  0.00     0.115 A 
ATOM     17  C   UNL     1       6.329  -0.318  -1.249  1.00  0.00     0.016 A 
ATOM     18  C   UNL     1       7.522   0.391  -1.415  1.00  0.00     0.047 A 
BRANCH  16  19
ATOM     19  O   UNL     1       8.934   2.190  -0.852  1.00  0.00    -0.508 OA
ATOM     20  H   UNL     1       8.961   2.963  -0.264  1.00  0.00     0.293 HD
ENDBRANCH  16  19
ENDBRANCH   3  13
BRANCH  11  21
ATOM     21  O   UNL     1       0.053  -3.636   0.507  1.00  0.00    -0.507 OA
ATOM     22  H   UNL     1       0.910  -4.114   0.419  1.00  0.00     0.293 HD
ENDBRANCH  11  21
ENDBRANCH   1   2
BRANCH   1  23
ATOM     23  C   UNL     1      -2.962   0.434   0.759  1.00  0.00     0.339 C 
ATOM     24  C   UNL     1      -3.784   1.700   1.069  1.00  0.00     0.214 C 
ATOM     25  O   UNL     1      -3.503  -0.227  -0.386  1.00  0.00    -0.332 OA
ATOM     26  C   UNL     1      -5.242   1.314   1.298  1.00  0.00     0.180 C 
ATOM     27  C   UNL     1      -4.856  -0.676  -0.183  1.00  0.00     0.179 C 
ATOM     28  C   UNL     1      -5.790   0.505   0.121  1.00  0.00     0.177 C 
BRANCH  24  29
ATOM     29  O   UNL     1      -3.304   2.376   2.244  1.00  0.00    -0.384 OA
ATOM     30  H   UNL     1      -2.353   2.539   2.090  1.00  0.00     0.211 HD
ENDBRANCH  24  29
BRANCH  26  31
ATOM     31  O   UNL     1      -6.046   2.492   1.476  1.00  0.00    -0.387 OA
ATOM     32  H   UNL     1      -5.561   3.037   2.129  1.00  0.00     0.211 HD
ENDBRANCH  26  31
BRANCH  27  33
ATOM     33  C   UNL     1      -5.278  -1.416  -1.459  1.00  0.00     0.191 C 
BRANCH  33  34
ATOM     34  O   UNL     1      -5.067  -0.590  -2.606  1.00  0.00    -0.394 OA
ATOM     35  H   UNL     1      -4.136  -0.301  -2.550  1.00  0.00     0.210 HD
ENDBRANCH  33  34
ENDBRANCH  27  33
BRANCH  28  36
ATOM     36  O   UNL     1      -7.098   0.038   0.463  1.00  0.00    -0.387 OA
ATOM     37  H   UNL     1      -7.592   0.838   0.734  1.00  0.00     0.211 HD
ENDBRANCH  28  36
ENDBRANCH   1  23
TORSDOF 10
