REMARK SMILES CC(=O)Oc1ccccc1C(=O)O
REMARK SMILES IDX 5 1 6 2 7 3 8 4 9 5 10 6 4 7 2 8 3 9 1 10 11 11 12 12 13 13
REMARK H PARENT 13 14
ROOT
ATOM      1  C   UNL     1       0.098   0.368   0.545  1.00  0.00     0.145 A 
ATOM      2  C   UNL     1       0.039   1.665   1.065  1.00  0.00     0.048 A 
ATOM      3  C   UNL     1      -1.188   2.320   1.146  1.00  0.00     0.004 A 
ATOM      4  C   UNL     1      -2.350   1.677   0.720  1.00  0.00     0.001 A 
ATOM      5  C   UNL     1      -2.290   0.373   0.217  1.00  0.00     0.019 A 
ATOM      6  C   UNL     1      -1.062  -0.302   0.130  1.00  0.00     0.102 A 
ENDROOT
BRANCH   1   7
ATOM      7  O   UNL     1       1.355  -0.243   0.519  1.00  0.00    -0.426 OA
BRANCH   7   8
ATOM      8  C   UNL     1       1.953  -0.183  -0.735  1.00  0.00     0.308 C 
ATOM      9  O   UNL     1       1.528   0.407  -1.720  1.00  0.00    -0.252 OA
ATOM     10  C   UNL     1       3.243  -0.945  -0.694  1.00  0.00     0.139 C 
ENDBRANCH   7   8
ENDBRANCH   1   7
BRANCH   6  11
ATOM     11  C   UNL     1      -0.995  -1.698  -0.376  1.00  0.00     0.339 C 
ATOM     12  O   UNL     1      -0.013  -2.415  -0.424  1.00  0.00    -0.246 OA
BRANCH  11  13
ATOM     13  O   UNL     1      -2.189  -2.150  -0.804  1.00  0.00    -0.478 OA
ATOM     14  H   UNL     1      -1.995  -3.058  -1.119  1.00  0.00     0.297 HD
ENDBRANCH  11  13
ENDBRANCH   6  11
TORSDOF 4
