REMARK SMILES O=C(O)/C=C/c1ccc(O)c(O)c1
REMARK SMILES IDX 5 1 4 2 6 3 7 4 8 5 9 6 13 7 11 8 10 9 12 11 2 13 1 14 3 15
REMARK H PARENT 10 10 12 12 3 16
ROOT
ATOM      1  C   UNL     1      -1.462  -0.632  -0.019  1.00  0.00     0.016 C 
ATOM      2  C   UNL     1      -2.405   0.319  -0.085  1.00  0.00     0.094 C 
ENDROOT
BRANCH   1   3
ATOM      3  C   UNL     1      -0.017  -0.368  -0.079  1.00  0.00    -0.021 A 
ATOM      4  C   UNL     1       0.822  -1.341  -0.652  1.00  0.00     0.012 A 
ATOM      5  C   UNL     1       2.208  -1.154  -0.716  1.00  0.00     0.051 A 
ATOM      6  C   UNL     1       2.756   0.008  -0.192  1.00  0.00     0.157 A 
ATOM      7  C   UNL     1       0.560   0.791   0.458  1.00  0.00     0.058 A 
ATOM      8  C   UNL     1       1.936   0.969   0.391  1.00  0.00     0.157 A 
BRANCH   6   9
ATOM      9  O   UNL     1       4.101   0.251  -0.221  1.00  0.00    -0.504 OA
ATOM     10  H   UNL     1       4.536  -0.504  -0.653  1.00  0.00     0.293 HD
ENDBRANCH   6   9
BRANCH   8  11
ATOM     11  O   UNL     1       2.485   2.106   0.913  1.00  0.00    -0.504 OA
ATOM     12  H   UNL     1       3.446   2.008   0.756  1.00  0.00     0.293 HD
ENDBRANCH   8  11
ENDBRANCH   1   3
BRANCH   2  13
ATOM     13  C   UNL     1      -3.822  -0.060  -0.029  1.00  0.00     0.328 C 
ATOM     14  O   UNL     1      -4.287  -1.179   0.064  1.00  0.00    -0.247 OA
BRANCH  13  15
ATOM     15  O   UNL     1      -4.596   1.034  -0.096  1.00  0.00    -0.478 OA
ATOM     16  H   UNL     1      -5.508   0.680  -0.049  1.00  0.00     0.297 HD
ENDBRANCH  13  15
ENDBRANCH   2  13
TORSDOF 5
