REMARK SMILES Cc1ccc(-c2cc(C(F)(F)F)nn2-c2ccc(S(N)(=O)=O)cc2)cc1
REMARK SMILES IDX 15 1 16 2 17 3 18 4 23 5 24 6 14 7 6 8 7 9 8 10 13 11 5 12
REMARK SMILES IDX 2 13 3 14 26 15 4 16 25 17 1 18 9 19 10 20 11 21 12 22 19 23
REMARK SMILES IDX 21 24 22 25 20 26
REMARK H PARENT 20 27 20 28
ROOT
ATOM      1  C   UNL     1      -0.972  -0.968  -0.358  1.00  0.00     0.065 A 
ATOM      2  C   UNL     1      -1.038   0.431  -0.419  1.00  0.00     0.030 A 
ATOM      3  C   UNL     1      -2.276   1.083  -0.464  1.00  0.00     0.024 A 
ATOM      4  C   UNL     1      -3.455   0.336  -0.469  1.00  0.00     0.082 A 
ATOM      5  C   UNL     1      -3.411  -1.057  -0.417  1.00  0.00     0.024 A 
ATOM      6  C   UNL     1      -2.173  -1.704  -0.373  1.00  0.00     0.030 A 
ENDROOT
BRANCH   1   7
ATOM      7  N   UNL     1       0.271  -1.679  -0.314  1.00  0.00    -0.233 N 
ATOM      8  C   UNL     1       1.568  -1.235  -0.051  1.00  0.00     0.075 A 
ATOM      9  C   UNL     1       2.395  -2.312  -0.311  1.00  0.00     0.064 A 
ATOM     10  C   UNL     1       1.550  -3.395  -0.631  1.00  0.00     0.167 A 
ATOM     11  N   UNL     1       0.263  -3.017  -0.584  1.00  0.00    -0.163 NA
BRANCH   8  12
ATOM     12  C   UNL     1       1.974   0.066   0.471  1.00  0.00     0.000 A 
ATOM     13  C   UNL     1       2.781   2.565   1.484  1.00  0.00    -0.051 A 
ATOM     14  C   UNL     1       1.973   1.717   2.250  1.00  0.00     0.004 A 
ATOM     15  C   UNL     1       3.208   2.140   0.221  1.00  0.00     0.004 A 
ATOM     16  C   UNL     1       1.573   0.476   1.749  1.00  0.00     0.010 A 
ATOM     17  C   UNL     1       2.808   0.899  -0.282  1.00  0.00     0.010 A 
ATOM     18  C   UNL     1       3.239   3.882   2.038  1.00  0.00     0.044 C 
ENDBRANCH   8  12
BRANCH  10  19
ATOM     19  C   UNL     1       1.975  -4.802  -0.954  1.00  0.00     0.435 C 
ATOM     20  F   UNL     1       3.331  -4.929  -0.962  1.00  0.00    -0.164 F 
ATOM     21  F   UNL     1       1.511  -5.706  -0.050  1.00  0.00    -0.164 F 
ATOM     22  F   UNL     1       1.546  -5.206  -2.179  1.00  0.00    -0.164 F 
ENDBRANCH  10  19
ENDBRANCH   1   7
BRANCH   4  23
ATOM     23  S   UNL     1      -5.019   1.162  -0.493  1.00  0.00     0.238 S 
ATOM     24  O   UNL     1      -6.021   0.301   0.091  1.00  0.00    -0.207 OA
ATOM     25  O   UNL     1      -4.839   2.533  -0.078  1.00  0.00    -0.207 OA
BRANCH  23  26
ATOM     26  N   UNL     1      -5.356   1.218  -2.136  1.00  0.00    -0.225 NA
ATOM     27  H   UNL     1      -5.405   2.189  -2.447  1.00  0.00     0.137 HD
ATOM     28  H   UNL     1      -6.198   0.678  -2.336  1.00  0.00     0.137 HD
ENDBRANCH  23  26
ENDBRANCH   4  23
TORSDOF 5
