REMARK SMILES C1#CCCCCCCCCCC1
REMARK SMILES IDX 2 1 3 2 4 3 5 4 6 5 7 6 8 7 1 9 12 10 11 11 10 12 9 13
REMARK H PARENT
REMARK Flexibility Score:   24.900
ROOT
ATOM      1  C   UNL     1       0.469  -0.652   1.993  1.00  0.00    -0.103 C 
ATOM      2  C   UNL     1      -0.653  -1.520   2.389  1.00  0.00     0.089 C 
ENDROOT
BRANCH   2   3
ATOM      3  C   UNL     1      -1.246  -2.297   1.207  1.00  0.00     0.013 C 
BRANCH   3   4
ATOM      4  C   UNL     1      -2.393  -1.590   0.466  1.00  0.00     0.001 C 
BRANCH   4   5
ATOM      5  C   UNL     1      -2.089  -0.208  -0.115  1.00  0.00     0.000 C 
BRANCH   5   6
ATOM      6  C   UNL     1      -0.983  -0.217  -1.174  1.00  0.00     0.000 C 
BRANCH   6   7
ATOM      7  C   UNL     1      -0.600   1.210  -1.579  1.00  0.00     0.000 CG0
ATOM      8  G   UNL     1       0.793   1.326  -2.213  1.00  0.00     0.000 G0
ENDBRANCH   6   7
ENDBRANCH   5   6
ENDBRANCH   4   5
ENDBRANCH   3   4
ENDBRANCH   2   3
BRANCH   1   9
ATOM      9  C   UNL     1       1.387   0.044   1.649  1.00  0.00    -0.103 C 
ATOM     10  C   UNL     1       2.503   0.889   1.188  1.00  0.00     0.089 C 
BRANCH  10  11
ATOM     11  C   UNL     1       2.111   1.732  -0.029  1.00  0.00     0.013 C 
BRANCH  11  12
ATOM     12  C   UNL     1       1.963   0.899  -1.314  1.00  0.00     0.001 C 
BRANCH  12  13
ATOM     13  C   UNL     1       0.793   1.326  -2.213  1.00  0.00     0.000 CG0
ATOM     14  G   UNL     1      -0.600   1.210  -1.579  1.00  0.00     0.000 G0
ENDBRANCH  12  13
ENDBRANCH  11  12
ENDBRANCH  10  11
ENDBRANCH   1   9
TORSDOF 0
