REMARK SMILES O=C(O)Cc1ccccc1Nc1c(Cl)cccc1Cl
REMARK SMILES IDX 7 1 8 2 9 3 10 4 5 5 6 6 4 7 2 8 1 9 3 10 11 12 12 14 18 15
REMARK SMILES IDX 13 16 17 17 15 18 16 19 19 20 14 21
REMARK H PARENT 3 11 11 13
ROOT
ATOM      1  C   UNL     1      -2.361   2.745   0.671  1.00  0.00     0.000 A 
ATOM      2  C   UNL     1      -1.080   2.965   0.179  1.00  0.00     0.002 A 
ATOM      3  C   UNL     1      -0.231   1.884  -0.065  1.00  0.00     0.026 A 
ATOM      4  C   UNL     1      -0.646   0.568   0.195  1.00  0.00     0.042 A 
ATOM      5  C   UNL     1      -1.953   0.345   0.681  1.00  0.00    -0.013 A 
ATOM      6  C   UNL     1      -2.797   1.444   0.919  1.00  0.00     0.006 A 
ENDROOT
BRANCH   5   7
ATOM      7  C   UNL     1      -2.453  -1.050   0.994  1.00  0.00     0.160 C 
BRANCH   7   8
ATOM      8  C   UNL     1      -2.624  -1.935  -0.217  1.00  0.00     0.307 C 
ATOM      9  O   UNL     1      -2.111  -1.814  -1.318  1.00  0.00    -0.252 OA
BRANCH   8  10
ATOM     10  O   UNL     1      -3.420  -2.997   0.039  1.00  0.00    -0.481 OA
ATOM     11  H   UNL     1      -3.427  -3.494  -0.805  1.00  0.00     0.296 HD
ENDBRANCH   8  10
ENDBRANCH   7   8
ENDBRANCH   5   7
BRANCH   4  12
ATOM     12  N   UNL     1       0.179  -0.549  -0.118  1.00  0.00    -0.353 N 
ATOM     13  H   UNL     1      -0.241  -0.999  -0.946  1.00  0.00     0.167 HD
BRANCH  12  14
ATOM     14  C   UNL     1       1.597  -0.527  -0.261  1.00  0.00     0.076 A 
ATOM     15  C   UNL     1       2.190  -0.899  -1.486  1.00  0.00     0.066 A 
ATOM     16  C   UNL     1       2.458  -0.138   0.786  1.00  0.00     0.066 A 
ATOM     17  C   UNL     1       3.577  -0.864  -1.667  1.00  0.00     0.023 A 
ATOM     18  C   UNL     1       3.847  -0.103   0.602  1.00  0.00     0.023 A 
ATOM     19  C   UNL     1       4.405  -0.462  -0.623  1.00  0.00     0.003 A 
ATOM     20  Cl  UNL     1       1.216  -1.404  -2.825  1.00  0.00    -0.082 Cl
ATOM     21  Cl  UNL     1       1.870   0.255   2.368  1.00  0.00    -0.082 Cl
ENDBRANCH  12  14
ENDBRANCH   4  12
TORSDOF 5
