REMARK SMILES COc1cc(/C=C/C(=O)O)ccc1O
REMARK SMILES IDX 6 1 7 2 5 3 3 4 13 5 4 6 12 7 11 8 2 9 1 10 14 11 8 13 9 14
REMARK SMILES IDX 10 15
REMARK H PARENT 14 12 10 16
ROOT
ATOM      1  C   UNL     1      -1.605  -0.614  -0.559  1.00  0.00     0.016 C 
ATOM      2  C   UNL     1      -2.852  -0.331  -0.153  1.00  0.00     0.094 C 
ENDROOT
BRANCH   1   3
ATOM      3  C   UNL     1      -0.397  -0.298   0.217  1.00  0.00    -0.021 A 
ATOM      4  C   UNL     1       1.947   0.361   0.220  1.00  0.00     0.161 A 
ATOM      5  C   UNL     1       1.948   0.255   1.615  1.00  0.00     0.157 A 
ATOM      6  C   UNL     1       0.769   0.076  -0.475  1.00  0.00     0.058 A 
ATOM      7  C   UNL     1       0.813  -0.128   2.316  1.00  0.00     0.051 A 
ATOM      8  C   UNL     1      -0.359  -0.410   1.615  1.00  0.00     0.012 A 
BRANCH   4   9
ATOM      9  O   UNL     1       3.143   0.744  -0.331  1.00  0.00    -0.493 OA
ATOM     10  C   UNL     1       3.183   0.863  -1.749  1.00  0.00     0.278 C 
ENDBRANCH   4   9
BRANCH   5  11
ATOM     11  O   UNL     1       3.085   0.526   2.326  1.00  0.00    -0.504 OA
ATOM     12  H   UNL     1       3.751   0.768   1.653  1.00  0.00     0.293 HD
ENDBRANCH   5  11
ENDBRANCH   1   3
BRANCH   2  13
ATOM     13  C   UNL     1      -3.990  -0.675  -1.014  1.00  0.00     0.328 C 
ATOM     14  O   UNL     1      -3.958  -1.196  -2.112  1.00  0.00    -0.247 OA
BRANCH  13  15
ATOM     15  O   UNL     1      -5.141  -0.330  -0.416  1.00  0.00    -0.478 OA
ATOM     16  H   UNL     1      -5.829  -0.597  -1.060  1.00  0.00     0.297 HD
ENDBRANCH  13  15
ENDBRANCH   2  13
TORSDOF 5
