REMARK SMILES CCCCCCCCCCCCCCCC(=O)O
REMARK SMILES IDX 9 1 8 2 7 3 6 4 5 5 4 6 3 7 2 8 1 9 10 10 11 11 12 12 13 13
REMARK SMILES IDX 14 14 15 15 16 16 17 17 18 18
REMARK H PARENT 18 19
ROOT
ATOM      1  C   UNL     1      -0.373  -0.050   1.127  1.00  0.00     0.000 C 
ENDROOT
BRANCH   1   2
ATOM      2  C   UNL     1       0.474  -1.138   1.791  1.00  0.00     0.000 C 
BRANCH   2   3
ATOM      3  C   UNL     1       1.944  -0.745   1.962  1.00  0.00    -0.000 C 
BRANCH   3   4
ATOM      4  C   UNL     1       2.688  -0.578   0.634  1.00  0.00    -0.000 C 
BRANCH   4   5
ATOM      5  C   UNL     1       4.176  -0.301   0.864  1.00  0.00    -0.000 C 
BRANCH   5   6
ATOM      6  C   UNL     1       4.921  -0.130  -0.461  1.00  0.00    -0.000 C 
BRANCH   6   7
ATOM      7  C   UNL     1       6.407   0.146  -0.231  1.00  0.00    -0.000 C 
BRANCH   7   8
ATOM      8  C   UNL     1       7.152   0.318  -1.555  1.00  0.00    -0.003 C 
ATOM      9  C   UNL     1       8.630   0.593  -1.331  1.00  0.00     0.004 C 
ENDBRANCH   7   8
ENDBRANCH   6   7
ENDBRANCH   5   6
ENDBRANCH   4   5
ENDBRANCH   3   4
ENDBRANCH   2   3
ENDBRANCH   1   2
BRANCH   1  10
ATOM     10  C   UNL     1      -1.851  -0.446   1.087  1.00  0.00     0.000 C 
BRANCH  10  11
ATOM     11  C   UNL     1      -2.700   0.638   0.421  1.00  0.00     0.000 C 
BRANCH  11  12
ATOM     12  C   UNL     1      -4.178   0.241   0.381  1.00  0.00     0.000 C 
BRANCH  12  13
ATOM     13  C   UNL     1      -5.024   1.326  -0.290  1.00  0.00     0.001 C 
BRANCH  13  14
ATOM     14  C   UNL     1      -6.526   1.031  -0.258  1.00  0.00     0.012 C 
BRANCH  14  15
ATOM     15  C   UNL     1      -6.921  -0.198  -1.076  1.00  0.00     0.122 C 
BRANCH  15  16
ATOM     16  C   UNL     1      -8.415  -0.370  -1.131  1.00  0.00     0.303 C 
ATOM     17  O   UNL     1      -9.263   0.290  -0.555  1.00  0.00    -0.252 OA
BRANCH  16  18
ATOM     18  O   UNL     1      -8.772  -1.400  -1.923  1.00  0.00    -0.481 OA
ATOM     19  H   UNL     1      -9.751  -1.410  -1.871  1.00  0.00     0.296 HD
ENDBRANCH  16  18
ENDBRANCH  15  16
ENDBRANCH  14  15
ENDBRANCH  13  14
ENDBRANCH  12  13
ENDBRANCH  11  12
ENDBRANCH  10  11
ENDBRANCH   1  10
TORSDOF 15
