REMARK SMILES CC(C)Cc1ccc([C@H](C)C(=O)O)cc1
REMARK SMILES IDX 5 1 6 2 7 3 8 4 14 5 15 6 4 7 2 8 1 9 3 10 9 11 10 12 11 13
REMARK SMILES IDX 12 14 13 15
REMARK H PARENT 13 16
ROOT
ATOM      1  C   UNL     1      -0.839  -0.761   0.050  1.00  0.00    -0.048 A 
ATOM      2  C   UNL     1       0.019  -0.559   1.138  1.00  0.00     0.004 A 
ATOM      3  C   UNL     1       1.375  -0.292   0.933  1.00  0.00     0.005 A 
ATOM      4  C   UNL     1       1.904  -0.223  -0.364  1.00  0.00    -0.034 A 
ATOM      5  C   UNL     1       1.042  -0.425  -1.451  1.00  0.00     0.005 A 
ATOM      6  C   UNL     1      -0.314  -0.692  -1.246  1.00  0.00     0.004 A 
ENDROOT
BRANCH   1   7
ATOM      7  C   UNL     1      -2.306  -1.044   0.270  1.00  0.00     0.038 C 
BRANCH   7   8
ATOM      8  C   UNL     1      -3.228   0.136  -0.096  1.00  0.00    -0.013 C 
ATOM      9  C   UNL     1      -3.031   1.330   0.841  1.00  0.00     0.008 C 
ATOM     10  C   UNL     1      -4.690  -0.317  -0.053  1.00  0.00     0.008 C 
ENDBRANCH   7   8
ENDBRANCH   1   7
BRANCH   4  11
ATOM     11  C   UNL     1       3.374   0.067  -0.604  1.00  0.00     0.126 C 
ATOM     12  C   UNL     1       4.275  -1.024  -0.020  1.00  0.00     0.025 C 
BRANCH  11  13
ATOM     13  C   UNL     1       3.775   1.427  -0.065  1.00  0.00     0.310 C 
ATOM     14  O   UNL     1       4.224   1.677   1.043  1.00  0.00    -0.252 OA
BRANCH  13  15
ATOM     15  O   UNL     1       3.573   2.423  -0.953  1.00  0.00    -0.481 OA
ATOM     16  H   UNL     1       3.828   3.232  -0.463  1.00  0.00     0.296 HD
ENDBRANCH  13  15
ENDBRANCH  11  13
ENDBRANCH   4  11
TORSDOF 5
