REMARK SMILES O=c1c(O)c(-c2ccc(O)cc2)oc2cc(O)cc(O)c12
REMARK SMILES IDX 5 1 3 2 2 3 1 4 21 5 19 6 18 7 16 8 15 9 14 10 13 11 6 12
REMARK SMILES IDX 7 13 8 14 9 15 12 16 11 17 10 18 4 20 20 22 17 24
REMARK H PARENT 10 19 4 21 20 23 17 25
ROOT
ATOM      1  C   UNL     1       0.545   0.215  -0.035  1.00  0.00     0.180 A 
ATOM      2  C   UNL     1       0.182   1.198   0.809  1.00  0.00     0.208 A 
ATOM      3  C   UNL     1      -1.261   1.463   1.007  1.00  0.00     0.238 A 
ATOM      4  O   UNL     1      -1.635   2.350   1.772  1.00  0.00    -0.285 OA
ATOM      5  C   UNL     1      -2.211   0.634   0.264  1.00  0.00     0.111 A 
ATOM      6  C   UNL     1      -3.593   0.812   0.380  1.00  0.00     0.134 A 
ATOM      7  C   UNL     1      -4.467   0.004  -0.342  1.00  0.00     0.093 A 
ATOM      8  C   UNL     1      -3.947  -0.981  -1.178  1.00  0.00     0.123 A 
ATOM      9  C   UNL     1      -2.572  -1.166  -1.300  1.00  0.00     0.094 A 
ATOM     10  C   UNL     1      -1.702  -0.354  -0.575  1.00  0.00     0.146 A 
ATOM     11  O   UNL     1      -0.359  -0.581  -0.732  1.00  0.00    -0.452 OA
ENDROOT
BRANCH   1  12
ATOM     12  C   UNL     1       1.953  -0.149  -0.301  1.00  0.00     0.021 A 
ATOM     13  C   UNL     1       2.335  -1.501  -0.307  1.00  0.00     0.016 A 
ATOM     14  C   UNL     1       3.655  -1.869  -0.578  1.00  0.00     0.047 A 
ATOM     15  C   UNL     1       4.601  -0.890  -0.852  1.00  0.00     0.115 A 
ATOM     16  C   UNL     1       2.926   0.821  -0.591  1.00  0.00     0.016 A 
ATOM     17  C   UNL     1       4.248   0.455  -0.862  1.00  0.00     0.047 A 
BRANCH  15  18
ATOM     18  O   UNL     1       5.877  -1.292  -1.110  1.00  0.00    -0.508 OA
ATOM     19  H   UNL     1       6.423  -0.505  -1.269  1.00  0.00     0.293 HD
ENDBRANCH  15  18
ENDBRANCH   1  12
BRANCH   2  20
ATOM     20  O   UNL     1       1.069   1.978   1.528  1.00  0.00    -0.502 OA
ATOM     21  H   UNL     1       0.510   2.573   2.071  1.00  0.00     0.293 HD
ENDBRANCH   2  20
BRANCH   6  22
ATOM     22  O   UNL     1      -4.158   1.763   1.187  1.00  0.00    -0.507 OA
ATOM     23  H   UNL     1      -3.437   2.257   1.638  1.00  0.00     0.293 HD
ENDBRANCH   6  22
BRANCH   8  24
ATOM     24  O   UNL     1      -4.762  -1.797  -1.905  1.00  0.00    -0.508 OA
ATOM     25  H   UNL     1      -5.688  -1.559  -1.726  1.00  0.00     0.293 HD
ENDBRANCH   8  24
TORSDOF 5
