REMARK SMILES O=C(O)/C=C/c1ccc(O)cc1
REMARK SMILES IDX 5 1 4 2 6 3 7 4 8 5 9 6 12 7 11 8 10 9 2 11 1 12 3 13
REMARK H PARENT 10 10 3 14
ROOT
ATOM      1  C   UNL     1       0.985  -0.964   0.190  1.00  0.00     0.015 C 
ATOM      2  C   UNL     1       2.089  -0.451   0.753  1.00  0.00     0.094 C 
ENDROOT
BRANCH   1   3
ATOM      3  C   UNL     1      -0.208  -0.177  -0.149  1.00  0.00    -0.025 A 
ATOM      4  C   UNL     1      -1.467  -0.787  -0.053  1.00  0.00     0.012 A 
ATOM      5  C   UNL     1      -2.630  -0.086  -0.389  1.00  0.00     0.047 A 
ATOM      6  C   UNL     1      -2.530   1.227  -0.833  1.00  0.00     0.115 A 
ATOM      7  C   UNL     1      -0.132   1.143  -0.615  1.00  0.00     0.012 A 
ATOM      8  C   UNL     1      -1.292   1.845  -0.951  1.00  0.00     0.047 A 
BRANCH   6   9
ATOM      9  O   UNL     1      -3.636   1.949  -1.172  1.00  0.00    -0.508 OA
ATOM     10  H   UNL     1      -4.421   1.393  -1.044  1.00  0.00     0.293 HD
ENDBRANCH   6   9
ENDBRANCH   1   3
BRANCH   2  11
ATOM     11  C   UNL     1       3.222  -1.331   1.065  1.00  0.00     0.328 C 
ATOM     12  O   UNL     1       3.302  -2.531   0.882  1.00  0.00    -0.247 OA
BRANCH  11  13
ATOM     13  O   UNL     1       4.223  -0.620   1.605  1.00  0.00    -0.478 OA
ATOM     14  H   UNL     1       4.920  -1.288   1.774  1.00  0.00     0.297 HD
ENDBRANCH  11  13
ENDBRANCH   2  11
TORSDOF 4
