REMARK SMILES O=c1c(O)c(-c2ccc(O)c(O)c2)oc2cc(O)cc(O)c12
REMARK SMILES IDX 5 1 3 2 2 3 1 4 22 5 20 6 19 7 17 8 16 9 15 10 14 11 6 12
REMARK SMILES IDX 7 13 8 14 9 15 13 16 11 17 10 18 12 20 4 22 21 24 18 26
REMARK H PARENT 10 19 12 21 4 23 21 25 18 27
ROOT
ATOM      1  C   UNL     1       0.384  -0.202   0.193  1.00  0.00     0.180 A 
ATOM      2  C   UNL     1      -0.013  -1.341   0.789  1.00  0.00     0.208 A 
ATOM      3  C   UNL     1      -1.465  -1.605   0.916  1.00  0.00     0.238 A 
ATOM      4  O   UNL     1      -1.866  -2.633   1.457  1.00  0.00    -0.285 OA
ATOM      5  C   UNL     1      -2.385  -0.603   0.377  1.00  0.00     0.111 A 
ATOM      6  C   UNL     1      -3.773  -0.766   0.445  1.00  0.00     0.134 A 
ATOM      7  C   UNL     1      -4.619   0.209  -0.079  1.00  0.00     0.093 A 
ATOM      8  C   UNL     1      -4.064   1.343  -0.667  1.00  0.00     0.123 A 
ATOM      9  C   UNL     1      -2.684   1.514  -0.739  1.00  0.00     0.094 A 
ATOM     10  C   UNL     1      -1.843   0.534  -0.213  1.00  0.00     0.146 A 
ATOM     11  O   UNL     1      -0.492   0.754  -0.309  1.00  0.00    -0.452 OA
ENDROOT
BRANCH   1  12
ATOM     12  C   UNL     1       1.805   0.178   0.026  1.00  0.00     0.025 A 
ATOM     13  C   UNL     1       2.210   1.496   0.311  1.00  0.00     0.016 A 
ATOM     14  C   UNL     1       3.539   1.893   0.142  1.00  0.00     0.051 A 
ATOM     15  C   UNL     1       4.466   0.972  -0.317  1.00  0.00     0.157 A 
ATOM     16  C   UNL     1       2.761  -0.736  -0.448  1.00  0.00     0.062 A 
ATOM     17  C   UNL     1       4.084  -0.334  -0.610  1.00  0.00     0.158 A 
BRANCH  15  18
ATOM     18  O   UNL     1       5.765   1.357  -0.482  1.00  0.00    -0.504 OA
ATOM     19  H   UNL     1       6.218   0.553  -0.808  1.00  0.00     0.293 HD
ENDBRANCH  15  18
BRANCH  17  20
ATOM     20  O   UNL     1       5.050  -1.192  -1.059  1.00  0.00    -0.504 OA
ATOM     21  H   UNL     1       4.644  -2.069  -1.173  1.00  0.00     0.293 HD
ENDBRANCH  17  20
ENDBRANCH   1  12
BRANCH   2  22
ATOM     22  O   UNL     1       0.847  -2.289   1.314  1.00  0.00    -0.502 OA
ATOM     23  H   UNL     1       0.266  -2.970   1.717  1.00  0.00     0.293 HD
ENDBRANCH   2  22
BRANCH   6  24
ATOM     24  O   UNL     1      -4.370  -1.859   1.011  1.00  0.00    -0.507 OA
ATOM     25  H   UNL     1      -3.667  -2.462   1.343  1.00  0.00     0.293 HD
ENDBRANCH   6  24
BRANCH   8  26
ATOM     26  O   UNL     1      -4.851   2.324  -1.193  1.00  0.00    -0.508 OA
ATOM     27  H   UNL     1      -5.785   2.078  -1.075  1.00  0.00     0.293 HD
ENDBRANCH   8  26
TORSDOF 6
